:MDSTEP: 5
:R(Bohr):
  7.6559929919E+00   3.5528706242E-02   7.6732785888E+00
  3.8336484050E+00   3.8159885296E+00   2.2490308081E-02
  3.8668925979E+00   7.6282265087E+00   1.1457265002E+01
  7.6383882777E+00   1.1470108069E+01   1.1449567153E+01
  7.6714704306E+00   3.8435660211E+00   1.1469867298E+01
  1.1471580293E+01   7.6698972935E+00   1.1472295466E+01
  1.1436959922E+01   1.1443348891E+01   7.6653395788E+00
  7.6572629785E+00   7.6588749387E+00   7.6668481002E+00
:V(Bohr/atu):
  1.6586678639E-05   3.5897234417E-04   1.8587991823E-04
  4.0958999976E-05  -1.0217321938E-04   2.2852165863E-04
  3.7404829670E-04  -2.6878476962E-04  -2.1857686960E-04
 -1.6140493166E-04  -9.0169840342E-05  -2.9581640239E-04
  1.7700379241E-04   2.0689316009E-04  -6.8036351692E-05
 -7.4264124642E-05   1.8415535488E-04  -8.2229858182E-05
 -4.1597742785E-04  -3.4143466104E-04   9.0141283112E-05
  4.3048716429E-05   5.2541631233E-05   1.6011662190E-04
:TEL(K): 800
:TIO(K): 785.874333487348
