:RELAXSTEP: 10
:E(Ha): -1.218273529383485E+01
:R(Bohr):
  11.338379960117626    1.881149777539524   10.873455241936933
   1.491707060256740   10.444103362368205   10.709489085581049
   9.846323404134441   10.444548568096019   10.709321920362068
   0.000000000000000    0.000000000000000    0.220132000000000
:ISFD: 0
:ISRESET: 0
:STEP: 7
:DX:
  -0.000289534974071
   0.026202948179883
  -0.002673367367182
  -0.003290014975516
  -0.009067833704879
  -0.006710755956149
   0.002609948517566
  -0.009250422110386
  -0.007124586153909
   0.000000000000000
   0.000000000000000
   0.000000000000000
  -0.001603490653537
   0.081007465799932
   0.005719082784536
  -0.020767999704505
  -0.034936372476599
  -0.034259321752227
   0.019009002746072
  -0.034497750747983
  -0.035313182970425
   0.000000000000000
   0.000000000000000
   0.000000000000000
  -0.000218719477955
  -0.011670490779526
   0.006820930936787
  -0.005527841776874
  -0.000228548753480
  -0.005251580769057
   0.005655034858604
   0.000226383593150
  -0.005110615289944
   0.000000000000000
   0.000000000000000
   0.000000000000000
  -0.000813683895760
  -0.008698161665247
   0.016635303159005
  -0.015770396176235
  -0.006314695294453
  -0.020916525712622
   0.015523135362749
  -0.005194200036085
  -0.020727017056194
   0.000000000000000
   0.000000000000000
   0.000000000000000
  -0.000031009732083
   0.002997871293751
   0.003702466436328
  -0.001695621004588
   0.003495791175222
  -0.007247970881208
   0.001404262884188
   0.003713607566835
  -0.007138188737859
   0.000000000000000
   0.000000000000000
   0.000000000000000
  -0.000085165699025
   0.013663261527232
   0.014607206641564
  -0.005397946607521
   0.036022132330565
  -0.036234218770119
   0.004301340945061
   0.037125566311776
  -0.035335250942570
   0.000000000000000
   0.000000000000000
   0.000000000000000
   0.000570603087235
  -0.004095553956921
   0.013481883230012
   0.015253888032865
   0.007462745185411
  -0.009581535612231
  -0.016866938954704
   0.006016678574113
  -0.009946256304895
   0.000000000000000
   0.000000000000000
   0.000000000000000
   0.000000000000000
   0.000000000000000
   0.000000000000000
   0.000000000000000
   0.000000000000000
   0.000000000000000
   0.000000000000000
   0.000000000000000
   0.000000000000000
   0.000000000000000
   0.000000000000000
   0.000000000000000
   0.000000000000000
   0.000000000000000
   0.000000000000000
   0.000000000000000
   0.000000000000000
   0.000000000000000
   0.000000000000000
   0.000000000000000
   0.000000000000000
   0.000000000000000
   0.000000000000000
   0.000000000000000
   0.000000000000000
   0.000000000000000
   0.000000000000000
   0.000000000000000
   0.000000000000000
   0.000000000000000
   0.000000000000000
   0.000000000000000
   0.000000000000000
   0.000000000000000
   0.000000000000000
   0.000000000000000
   0.000000000000000
   0.000000000000000
   0.000000000000000
   0.000000000000000
   0.000000000000000
   0.000000000000000
   0.000000000000000
   0.000000000000000
   0.000000000000000
   0.000000000000000
   0.000000000000000
   0.000000000000000
   0.000000000000000
   0.000000000000000
   0.000000000000000
   0.000000000000000
   0.000000000000000
   0.000000000000000
   0.000000000000000
   0.000000000000000
   0.000000000000000
   0.000000000000000
   0.000000000000000
   0.000000000000000
   0.000000000000000
   0.000000000000000
   0.000000000000000
   0.000000000000000
   0.000000000000000
   0.000000000000000
   0.000000000000000
   0.000000000000000
   0.000000000000000
   0.000000000000000
   0.000000000000000
   0.000000000000000
   0.000000000000000
   0.000000000000000
   0.000000000000000
   0.000000000000000
   0.000000000000000
   0.000000000000000
   0.000000000000000
   0.000000000000000
   0.000000000000000
   0.000000000000000
   0.000000000000000
   0.000000000000000
   0.000000000000000
   0.000000000000000
   0.000000000000000
   0.000000000000000
   0.000000000000000
   0.000000000000000
   0.000000000000000
   0.000000000000000
   0.000000000000000
   0.000000000000000
   0.000000000000000
   0.000000000000000
   0.000000000000000
   0.000000000000000
   0.000000000000000
   0.000000000000000
   0.000000000000000
   0.000000000000000
   0.000000000000000
   0.000000000000000
   0.000000000000000
   0.000000000000000
   0.000000000000000
   0.000000000000000
   0.000000000000000
   0.000000000000000
   0.000000000000000
   0.000000000000000
   0.000000000000000
   0.000000000000000
   0.000000000000000
   0.000000000000000
   0.000000000000000
   0.000000000000000
   0.000000000000000
   0.000000000000000
   0.000000000000000
   0.000000000000000
   0.000000000000000
   0.000000000000000
   0.000000000000000
   0.000000000000000
   0.000000000000000
   0.000000000000000
   0.000000000000000
   0.000000000000000
   0.000000000000000
   0.000000000000000
   0.000000000000000
   0.000000000000000
   0.000000000000000
   0.000000000000000
   0.000000000000000
   0.000000000000000
   0.000000000000000
   0.000000000000000
   0.000000000000000
   0.000000000000000
   0.000000000000000
   0.000000000000000
   0.000000000000000
   0.000000000000000
   0.000000000000000
   0.000000000000000
   0.000000000000000
   0.000000000000000
   0.000000000000000
   0.000000000000000
   0.000000000000000
   0.000000000000000
   0.000000000000000
   0.000000000000000
:DG:
   0.000003325136436
   0.008109130812906
  -0.002661808974770
   0.000371959846439
  -0.001900718330735
  -0.000304141278302
  -0.000627478792034
  -0.002088815988421
  -0.000461794560310
   0.000000000000000
   0.000000000000000
   0.000000000000000
  -0.000171110006103
   0.028603985594508
  -0.005075139855339
  -0.000398789704426
  -0.007983671214295
  -0.003641367743753
  -0.000217122240832
  -0.008320408799787
  -0.004051234847003
   0.000000000000000
  -0.000000000000000
   0.000000000000000
  -0.000029931123846
  -0.005269975103238
   0.001863581307535
  -0.001249765064516
   0.000376588655204
  -0.000113156932825
   0.001391122555939
   0.000502293940924
  -0.000063791334432
   0.000000000000000
   0.000000000000000
   0.000000000000000
  -0.000136687831597
  -0.004983356932967
   0.002764467945681
  -0.002504256155629
  -0.001413145767423
  -0.001847804652134
   0.002595355666323
  -0.001217419185774
  -0.001795175724188
   0.000000000000000
   0.000000000000000
   0.000000000000000
  -0.000002847008911
   0.000500648412720
   0.000176026809909
  -0.000080820853057
  -0.000204799612311
  -0.000415405775562
   0.000048810303395
  -0.000199625659852
  -0.000417928435302
   0.000000000000000
   0.000000000000000
   0.000000000000000
  -0.000018134311148
   0.002553448270147
  -0.000820362412537
  -0.000782315819508
   0.001217405327561
  -0.000943734449955
   0.000792486492041
   0.001328045262516
  -0.000888786048592
   0.000000000000000
  -0.000000000000000
   0.000000000000000
   0.000131050430493
  -0.002942793061080
   0.001723207880726
   0.005529888141159
  -0.001252677696035
  -0.001437505646559
  -0.006121905258922
  -0.001749270200362
  -0.001733963609191
   0.000000000000000
   0.000000000000000
   0.000000000000000
   0.000000000000000
   0.000000000000000
   0.000000000000000
   0.000000000000000
   0.000000000000000
   0.000000000000000
   0.000000000000000
   0.000000000000000
   0.000000000000000
   0.000000000000000
   0.000000000000000
   0.000000000000000
   0.000000000000000
   0.000000000000000
   0.000000000000000
   0.000000000000000
   0.000000000000000
   0.000000000000000
   0.000000000000000
   0.000000000000000
   0.000000000000000
   0.000000000000000
   0.000000000000000
   0.000000000000000
   0.000000000000000
   0.000000000000000
   0.000000000000000
   0.000000000000000
   0.000000000000000
   0.000000000000000
   0.000000000000000
   0.000000000000000
   0.000000000000000
   0.000000000000000
   0.000000000000000
   0.000000000000000
   0.000000000000000
   0.000000000000000
   0.000000000000000
   0.000000000000000
   0.000000000000000
   0.000000000000000
   0.000000000000000
   0.000000000000000
   0.000000000000000
   0.000000000000000
   0.000000000000000
   0.000000000000000
   0.000000000000000
   0.000000000000000
   0.000000000000000
   0.000000000000000
   0.000000000000000
   0.000000000000000
   0.000000000000000
   0.000000000000000
   0.000000000000000
   0.000000000000000
   0.000000000000000
   0.000000000000000
   0.000000000000000
   0.000000000000000
   0.000000000000000
   0.000000000000000
   0.000000000000000
   0.000000000000000
   0.000000000000000
   0.000000000000000
   0.000000000000000
   0.000000000000000
   0.000000000000000
   0.000000000000000
   0.000000000000000
   0.000000000000000
   0.000000000000000
   0.000000000000000
   0.000000000000000
   0.000000000000000
   0.000000000000000
   0.000000000000000
   0.000000000000000
   0.000000000000000
   0.000000000000000
   0.000000000000000
   0.000000000000000
   0.000000000000000
   0.000000000000000
   0.000000000000000
   0.000000000000000
   0.000000000000000
   0.000000000000000
   0.000000000000000
   0.000000000000000
   0.000000000000000
   0.000000000000000
   0.000000000000000
   0.000000000000000
   0.000000000000000
   0.000000000000000
   0.000000000000000
   0.000000000000000
   0.000000000000000
   0.000000000000000
   0.000000000000000
   0.000000000000000
   0.000000000000000
   0.000000000000000
   0.000000000000000
   0.000000000000000
   0.000000000000000
   0.000000000000000
   0.000000000000000
   0.000000000000000
   0.000000000000000
   0.000000000000000
   0.000000000000000
   0.000000000000000
   0.000000000000000
   0.000000000000000
   0.000000000000000
   0.000000000000000
   0.000000000000000
   0.000000000000000
   0.000000000000000
   0.000000000000000
   0.000000000000000
   0.000000000000000
   0.000000000000000
   0.000000000000000
   0.000000000000000
   0.000000000000000
   0.000000000000000
   0.000000000000000
   0.000000000000000
   0.000000000000000
   0.000000000000000
   0.000000000000000
   0.000000000000000
   0.000000000000000
   0.000000000000000
   0.000000000000000
   0.000000000000000
   0.000000000000000
   0.000000000000000
   0.000000000000000
   0.000000000000000
   0.000000000000000
   0.000000000000000
   0.000000000000000
   0.000000000000000
   0.000000000000000
   0.000000000000000
   0.000000000000000
   0.000000000000000
   0.000000000000000
   0.000000000000000
:IYS:
3866.592287954830681
 319.866005619470059
11117.984517647515531
3841.254896130522866
145030.147043188451789
5282.694044622666297
4271.385431787206471
   0.000000000000000
   0.000000000000000
   0.000000000000000
   0.000000000000000
   0.000000000000000
   0.000000000000000
   0.000000000000000
   0.000000000000000
   0.000000000000000
   0.000000000000000
   0.000000000000000
   0.000000000000000
   0.000000000000000
:FOLD:
  -0.000086219213467
   0.001534077927983
  -0.000837414674017
  -0.004414755851101
   0.001434900452022
   0.001505189424929
   0.004938150470276
   0.001823238931383
   0.001770875071444
  -0.000000000000000
  -0.000000000000000
  -0.000000000000000
:RDISP:
  -0.000383392171791
   0.002087568689437
  -0.008710710546646
  -0.011488820902328
  -0.002852404816949
   0.006815519890164
   0.012779403561309
  -0.001754721548275
   0.007202201322926
   0.000000000000000
   0.000000000000000
   0.000000000000000
