:MDSTEP: 50
:R(Bohr):
  1.1308799829E+01   3.4769378554E-01   9.7187354609E-01
  2.9556925736E-02   1.0990662969E+01   1.0366483209E+01
:V(Bohr/atu):
 -1.7196565170E-05   4.9772003355E-05  -1.1553507567E-05
  1.7196565170E-05  -4.9772003355E-05   1.1553507567E-05
:snose: 14.4949963951967
:xinose: 0.0058831346840711
:TTHRMI(K): 500
:TEL(K): 500
:TIO(K): 15.6226879126986

:MDSTEP: 50
:R(Bohr):
  1.1308799829E+01   3.4769378554E-01   9.7187354609E-01
  2.9556925736E-02   1.0990662969E+01   1.0366483209E+01
:V(Bohr/atu):
 -1.7196565170E-05   4.9772003355E-05  -1.1553507567E-05
  1.7196565170E-05  -4.9772003355E-05   1.1553507567E-05
:snose: 14.4949963951967
:xinose: 0.0058831346840711
:TTHRMI(K): 500
:TEL(K): 500
:TIO(K): 15.6226879126986

:MDSTEP: 49
:R(Bohr):
  1.1309499936E+01   3.4562820107E-01   9.7235039975E-01
  2.8856818884E-02   1.0992728554E+01   1.0366006355E+01
:V(Bohr/atu):
 -1.6686341375E-05   5.0201577237E-05  -1.1453358665E-05
  1.6686341375E-05  -5.0201577237E-05   1.1453358665E-05
:snose: 14.24940147126
:xinose: 0.00599816465194807
:TTHRMI(K): 500
:TEL(K): 500
:TIO(K): 15.7482198323826
